<?xml version="1.0" encoding="UTF-8"?>

<!-- generated on 03/25/21 04:04:09 by Eclipse SUMO GUI Version 1.7.0
<configuration xmlns:xsi="http://www.w3.org/2001/XMLSchema-instance" xsi:noNamespaceSchemaLocation="http://sumo.dlr.de/xsd/sumoConfiguration.xsd">

    <input>
        <net-file value="C:\Users\Duc\source\veins-5.0\veins-veins-5.0\examples\OffloadOptimization\lust.net.xml"/>
        <route-files value="C:\Users\Duc\source\veins-5.0\veins-veins-5.0\examples\OffloadOptimization\buslines.rou.xml,C:\Users\Duc\source\veins-5.0\veins-veins-5.0\examples\OffloadOptimization\local.0.rou.xml,C:\Users\Duc\source\veins-5.0\veins-veins-5.0\examples\OffloadOptimization\local.1.rou.xml,C:\Users\Duc\source\veins-5.0\veins-veins-5.0\examples\OffloadOptimization\local.2.rou.xml,C:\Users\Duc\source\veins-5.0\veins-veins-5.0\examples\OffloadOptimization\transit.rou.xml"/>
        <additional-files value="C:\Users\Duc\source\veins-5.0\veins-veins-5.0\examples\OffloadOptimization\vtypes.add.xml,C:\Users\Duc\source\veins-5.0\veins-veins-5.0\examples\OffloadOptimization\busstops.add.xml,C:\Users\Duc\source\veins-5.0\veins-veins-5.0\examples\OffloadOptimization\e1detectors.add.xml,C:\Users\Duc\source\veins-5.0\veins-veins-5.0\examples\OffloadOptimization\lust.poly.xml,C:\Users\Duc\source\veins-5.0\veins-veins-5.0\examples\OffloadOptimization\tll.static.xml"/>
    </input>

    <output>
        <summary-output value="C:\Users\Duc\source\veins-5.0\veins-veins-5.0\examples\OffloadOptimization\dua.static.summary.xml"/>
        <tripinfo-output value="C:\Users\Duc\source\veins-5.0\veins-veins-5.0\examples\OffloadOptimization\dua.static.tripinfo.xml"/>
    </output>

    <time>
        <begin value="28800"/>
        <step-length value="1"/>
    </time>

    <processing>
        <ignore-junction-blocker value="20"/>
        <time-to-teleport value="600"/>
        <max-depart-delay value="600"/>
    </processing>

    <routing>
        <routing-algorithm value="dijkstra"/>
        <device.rerouting.probability value="0.7"/>
        <device.rerouting.period value="300"/>
        <device.rerouting.pre-period value="300"/>
    </routing>

    <report>
        <verbose value="true"/>
        <log value="C:\Users\Duc\source\veins-5.0\veins-veins-5.0\examples\OffloadOptimization\dua.static.log"/>
    </report>

    <gui_only>
        <tracker-interval value="1"/>
    </gui_only>

</configuration>
-->

<tripinfos xmlns:xsi="http://www.w3.org/2001/XMLSchema-instance" xsi:noNamespaceSchemaLocation="http://sumo.dlr.de/xsd/tripinfo_file.xsd">
    <tripinfo id="h62061c1:1" depart="28816.00" departLane="-32046#1_0" departPos="103.32" departSpeed="0.00" departDelay="0.00" arrival="28823.00" arrivalLane="-32046#1_0" arrivalPos="135.93" arrivalSpeed="1.06" duration="7.00" routeLength="32.61" waitingTime="0.00" waitingCount="0" stopTime="0.00" timeLoss="4.33" rerouteNo="0" devices="tripinfo_h62061c1:1 routing_h62061c1:1" vType="passenger2b" speedFactor="0.88" vaporized=""/>
    <tripinfo id="h50419c1:1" depart="28825.00" departLane="-31244#1_0" departPos="127.34" departSpeed="0.00" departDelay="0.00" arrival="28832.00" arrivalLane="-31244#1_0" arrivalPos="150.62" arrivalSpeed="0.08" duration="7.00" routeLength="23.28" waitingTime="1.00" waitingCount="1" stopTime="0.00" timeLoss="5.39" rerouteNo="0" devices="tripinfo_h50419c1:1 routing_h50419c1:1" vType="passenger1" speedFactor="1.04" vaporized=""/>
    <tripinfo id="h3248c1:1" depart="28839.00" departLane="--30494#0_0" departPos="55.75" departSpeed="0.00" departDelay="0.00" arrival="28840.00" arrivalLane="--30494#0_0" arrivalPos="12.57" arrivalSpeed="0.00" duration="1.00" routeLength="-43.18" waitingTime="1.00" waitingCount="1" stopTime="0.00" timeLoss="1.00" rerouteNo="0" devices="tripinfo_h3248c1:1 routing_h3248c1:1" vType="passenger2a" speedFactor="1.09" vaporized=""/>
    <tripinfo id="h16932c1:1" depart="28839.00" departLane="--31538#4_0" departPos="63.65" departSpeed="0.00" departDelay="0.00" arrival="28847.00" arrivalLane="--31538#4_0" arrivalPos="89.56" arrivalSpeed="0.08" duration="8.00" routeLength="25.91" waitingTime="1.00" waitingCount="1" stopTime="0.00" timeLoss="6.08" rerouteNo="0" devices="tripinfo_h16932c1:1" vType="passenger1" speedFactor="0.97" vaporized=""/>
    <tripinfo id="h27802c1:1" depart="28859.00" departLane="--32338_0" departPos="129.11" departSpeed="0.00" departDelay="0.00" arrival="28860.00" arrivalLane="--32338_0" arrivalPos="122.57" arrivalSpeed="0.00" duration="1.00" routeLength="-6.55" waitingTime="1.00" waitingCount="1" stopTime="0.00" timeLoss="1.00" rerouteNo="0" devices="tripinfo_h27802c1:1 routing_h27802c1:1" vType="passenger1" speedFactor="1.07" vaporized=""/>
    <tripinfo id="h44318c1:1" depart="28856.00" departLane="-30828#1_0" departPos="53.40" departSpeed="0.00" departDelay="0.00" arrival="28861.00" arrivalLane="-30828#1_0" arrivalPos="61.76" arrivalSpeed="0.11" duration="5.00" routeLength="8.36" waitingTime="0.00" waitingCount="0" stopTime="0.00" timeLoss="4.45" rerouteNo="0" devices="tripinfo_h44318c1:1" vType="passenger2b" speedFactor="1.10" vaporized=""/>
    <tripinfo id="h27388c1:1" depart="28860.00" departLane="--32292_0" departPos="1001.30" departSpeed="0.00" departDelay="0.00" arrival="28861.00" arrivalLane="--32292_0" arrivalPos="655.09" arrivalSpeed="0.00" duration="1.00" routeLength="-346.21" waitingTime="1.00" waitingCount="1" stopTime="0.00" timeLoss="1.00" rerouteNo="0" devices="tripinfo_h27388c1:1 routing_h27388c1:1" vType="passenger4" speedFactor="0.98" vaporized=""/>
    <tripinfo id="randUni5351:1" depart="28853.00" departLane="-30520#1_0" departPos="6.80" departSpeed="0.00" departDelay="0.00" arrival="28881.00" arrivalLane="-32750#9_0" arrivalPos="20.64" arrivalSpeed="0.38" duration="28.00" routeLength="299.29" waitingTime="0.00" waitingCount="0" stopTime="0.00" timeLoss="8.13" rerouteNo="0" devices="tripinfo_randUni5351:1 routing_randUni5351:1" vType="passenger2b" speedFactor="1.08" vaporized=""/>
    <tripinfo id="h58431c1:1" depart="28842.00" departLane="-31818#9_0" departPos="354.06" departSpeed="0.00" departDelay="0.00" arrival="28887.00" arrivalLane="-31818#9_0" arrivalPos="984.99" arrivalSpeed="0.13" duration="45.00" routeLength="630.93" waitingTime="0.00" waitingCount="0" stopTime="0.00" timeLoss="10.41" rerouteNo="0" devices="tripinfo_h58431c1:1 routing_h58431c1:1" vType="passenger1" speedFactor="1.09" vaporized=""/>
    <tripinfo id="h37294c1:1" depart="28836.00" departLane="-30358#16_0" departPos="126.03" departSpeed="0.00" departDelay="0.00" arrival="28932.00" arrivalLane="-31552_0" arrivalPos="294.02" arrivalSpeed="0.69" duration="96.00" routeLength="1243.16" waitingTime="0.00" waitingCount="0" stopTime="0.00" timeLoss="12.96" rerouteNo="0" devices="tripinfo_h37294c1:1 routing_h37294c1:1" vType="passenger3" speedFactor="0.92" vaporized=""/>
    <tripinfo id="carIn34448:1" depart="28877.00" departLane="--31568_0" departPos="5.19" departSpeed="0.00" departDelay="0.00" arrival="28933.00" arrivalLane="-31366#3_0" arrivalPos="10.79" arrivalSpeed="3.41" duration="56.00" routeLength="939.10" waitingTime="0.00" waitingCount="0" stopTime="0.00" timeLoss="12.06" rerouteNo="0" devices="tripinfo_carIn34448:1" vType="passenger2b" speedFactor="1.13" vaporized=""/>
    <tripinfo id="h57034c1:1" depart="28945.00" departLane="-31724#0_0" departPos="13.60" departSpeed="0.00" departDelay="0.00" arrival="28951.00" arrivalLane="-31724#0_0" arrivalPos="36.85" arrivalSpeed="1.13" duration="6.00" routeLength="23.25" waitingTime="0.00" waitingCount="0" stopTime="0.00" timeLoss="4.43" rerouteNo="0" devices="tripinfo_h57034c1:1" vType="passenger3" speedFactor="1.07" vaporized=""/>
    <tripinfo id="carIn45836:1" depart="28813.00" departLane="-30668#0_0" departPos="226.07" departSpeed="0.00" departDelay="0.00" arrival="28955.00" arrivalLane="--31668#4_0" arrivalPos="156.57" arrivalSpeed="0.21" duration="142.00" routeLength="3077.80" waitingTime="2.00" waitingCount="1" stopTime="0.00" timeLoss="30.56" rerouteNo="0" devices="tripinfo_carIn45836:1 routing_carIn45836:1" vType="passenger1" speedFactor="1.12" vaporized=""/>
    <tripinfo id="h59313c1:1" depart="28950.00" departLane="-31868#1_0" departPos="13.67" departSpeed="0.00" departDelay="0.00" arrival="28959.00" arrivalLane="-31868#1_0" arrivalPos="64.62" arrivalSpeed="0.41" duration="9.00" routeLength="50.95" waitingTime="0.00" waitingCount="0" stopTime="0.00" timeLoss="5.05" rerouteNo="0" devices="tripinfo_h59313c1:1 routing_h59313c1:1" vType="passenger2b" speedFactor="0.93" vaporized=""/>
    <tripinfo id="h38478c1:1" depart="28958.00" departLane="-30436#0_0" departPos="181.85" departSpeed="0.00" departDelay="0.00" arrival="28959.00" arrivalLane="-30436#0_0" arrivalPos="44.31" arrivalSpeed="0.00" duration="1.00" routeLength="-137.54" waitingTime="1.00" waitingCount="1" stopTime="0.00" timeLoss="1.00" rerouteNo="0" devices="tripinfo_h38478c1:1 routing_h38478c1:1" vType="passenger1" speedFactor="0.79" vaporized=""/>
    <tripinfo id="h47589c2:1" depart="28960.00" departLane="-31048#0_0" departPos="93.97" departSpeed="0.00" departDelay="0.00" arrival="28961.00" arrivalLane="-31048#0_0" arrivalPos="85.04" arrivalSpeed="0.00" duration="1.00" routeLength="-8.93" waitingTime="1.00" waitingCount="1" stopTime="0.00" timeLoss="1.00" rerouteNo="0" devices="tripinfo_h47589c2:1 routing_h47589c2:1" vType="passenger2a" speedFactor="1.09" vaporized=""/>
    <tripinfo id="h11241c1:1" depart="28817.00" departLane="-31080#0_0" departPos="200.96" departSpeed="0.00" departDelay="0.00" arrival="28983.00" arrivalLane="--31364#7_1" arrivalPos="53.86" arrivalSpeed="0.15" duration="166.00" routeLength="1985.80" waitingTime="5.00" waitingCount="2" stopTime="0.00" timeLoss="30.83" rerouteNo="0" devices="tripinfo_h11241c1:1" vType="passenger1" speedFactor="1.05" vaporized=""/>
    <tripinfo id="carIn29763:1" depart="28935.00" departLane="-31114_0" departPos="173.51" departSpeed="0.00" departDelay="0.00" arrival="28985.00" arrivalLane="--30916#2_0" arrivalPos="429.67" arrivalSpeed="0.16" duration="50.00" routeLength="619.65" waitingTime="0.00" waitingCount="0" stopTime="0.00" timeLoss="10.82" rerouteNo="0" devices="tripinfo_carIn29763:1" vType="passenger1" speedFactor="1.09" vaporized=""/>
    <tripinfo id="h2812c1:1" depart="28984.00" departLane="--30454#1_0" departPos="118.80" departSpeed="0.00" departDelay="0.00" arrival="28985.00" arrivalLane="--30454#1_0" arrivalPos="90.89" arrivalSpeed="0.00" duration="1.00" routeLength="-27.91" waitingTime="1.00" waitingCount="1" stopTime="0.00" timeLoss="1.00" rerouteNo="0" devices="tripinfo_h2812c1:1" vType="passenger2b" speedFactor="0.96" vaporized=""/>
    <tripinfo id="carIn9717:1" depart="28866.00" departLane="--30542#1_0" departPos="61.77" departSpeed="0.00" departDelay="15.00" arrival="28987.00" arrivalLane="--31564#0_0" arrivalPos="20.90" arrivalSpeed="0.53" duration="121.00" routeLength="610.48" waitingTime="50.00" waitingCount="2" stopTime="0.00" timeLoss="67.54" rerouteNo="0" devices="tripinfo_carIn9717:1 routing_carIn9717:1" vType="passenger2b" speedFactor="0.82" vaporized=""/>
    <tripinfo id="carIn14089:1" depart="28963.00" departLane="--32230#8_0" departPos="92.19" departSpeed="0.00" departDelay="0.00" arrival="28993.00" arrivalLane="--32230#6_0" arrivalPos="100.37" arrivalSpeed="0.09" duration="30.00" routeLength="320.50" waitingTime="1.00" waitingCount="1" stopTime="0.00" timeLoss="12.10" rerouteNo="0" devices="tripinfo_carIn14089:1 routing_carIn14089:1" vType="passenger1" speedFactor="1.07" vaporized=""/>
    <tripinfo id="carIn35413:1" depart="28907.00" departLane="--30964_0" departPos="925.39" departSpeed="0.00" departDelay="0.00" arrival="28998.00" arrivalLane="-30964_0" arrivalPos="611.48" arrivalSpeed="0.24" duration="91.00" routeLength="1253.29" waitingTime="0.00" waitingCount="0" stopTime="0.00" timeLoss="22.33" rerouteNo="0" devices="tripinfo_carIn35413:1 routing_carIn35413:1" vType="passenger5" speedFactor="1.06" vaporized=""/>
    <tripinfo id="h4571c1:1" depart="28997.00" departLane="--30590#1_0" departPos="25.66" departSpeed="0.00" departDelay="0.00" arrival="28998.00" arrivalLane="--30590#1_0" arrivalPos="25.74" arrivalSpeed="0.04" duration="1.00" routeLength="0.08" waitingTime="1.00" waitingCount="1" stopTime="0.00" timeLoss="1.00" rerouteNo="0" devices="tripinfo_h4571c1:1 routing_h4571c1:1" vType="passenger3" speedFactor="1.05" vaporized=""/>
    <tripinfo id="carIn22357:1" depart="28881.00" departLane="--30964_0" departPos="888.22" departSpeed="0.00" departDelay="0.00" arrival="29001.00" arrivalLane="-30668#16_1" arrivalPos="123.22" arrivalSpeed="0.10" duration="120.00" routeLength="2861.34" waitingTime="0.00" waitingCount="0" stopTime="0.00" timeLoss="15.03" rerouteNo="0" devices="tripinfo_carIn22357:1 routing_carIn22357:1" vType="passenger1" speedFactor="0.92" vaporized=""/>
    <tripinfo id="carIn23388:1" depart="28828.00" departLane="-30668#0_0" departPos="318.65" departSpeed="0.00" departDelay="0.00" arrival="29002.00" arrivalLane="--32878#0_1" arrivalPos="98.51" arrivalSpeed="0.13" duration="174.00" routeLength="2153.21" waitingTime="21.00" waitingCount="2" stopTime="0.00" timeLoss="54.02" rerouteNo="0" devices="tripinfo_carIn23388:1 routing_carIn23388:1" vType="passenger1" speedFactor="1.11" vaporized=""/>
    <tripinfo id="h57925c1:1" depart="28813.00" departLane="-31796#2_0" departPos="455.41" departSpeed="0.00" departDelay="0.00" arrival="29004.00" arrivalLane="-31526#1_0" arrivalPos="16.36" arrivalSpeed="0.53" duration="191.00" routeLength="2421.21" waitingTime="12.00" waitingCount="1" stopTime="0.00" timeLoss="41.29" rerouteNo="0" devices="tripinfo_h57925c1:1" vType="passenger2b" speedFactor="1.16" vaporized=""/>
    <tripinfo id="carIn22:1" depart="28855.00" departLane="--30542#1_0" departPos="16.73" departSpeed="0.00" departDelay="16.00" arrival="29008.00" arrivalLane="-30346#0_0" arrivalPos="41.62" arrivalSpeed="0.38" duration="153.00" routeLength="1262.19" waitingTime="35.00" waitingCount="1" stopTime="0.00" timeLoss="60.18" rerouteNo="0" devices="tripinfo_carIn22:1" vType="passenger2a" speedFactor="0.98" vaporized=""/>
    <tripinfo id="h18686c1:1" depart="29007.00" departLane="--31670_0" departPos="122.01" departSpeed="0.00" departDelay="0.00" arrival="29008.00" arrivalLane="--31670_0" arrivalPos="60.92" arrivalSpeed="0.00" duration="1.00" routeLength="-61.09" waitingTime="1.00" waitingCount="1" stopTime="0.00" timeLoss="1.00" rerouteNo="0" devices="tripinfo_h18686c1:1 routing_h18686c1:1" vType="passenger1" speedFactor="1.05" vaporized=""/>
    <tripinfo id="carIn45233:1" depart="28834.00" departLane="--30542#1_0" departPos="31.93" departSpeed="0.00" departDelay="5.00" arrival="29010.00" arrivalLane="-32750#12_0" arrivalPos="15.50" arrivalSpeed="0.08" duration="176.00" routeLength="1688.08" waitingTime="7.00" waitingCount="2" stopTime="0.00" timeLoss="40.60" rerouteNo="1" devices="tripinfo_carIn45233:1 routing_carIn45233:1" vType="passenger2b" speedFactor="0.88" vaporized=""/>
    <tripinfo id="h56925c1:1" depart="29012.00" departLane="-31718#3_0" departPos="27.71" departSpeed="0.00" departDelay="0.00" arrival="29013.00" arrivalLane="-31718#3_0" arrivalPos="20.93" arrivalSpeed="0.00" duration="1.00" routeLength="-6.78" waitingTime="1.00" waitingCount="1" stopTime="0.00" timeLoss="1.00" rerouteNo="0" devices="tripinfo_h56925c1:1 routing_h56925c1:1" vType="passenger1" speedFactor="0.99" vaporized=""/>
    <tripinfo id="h43818c1:1" depart="28803.00" departLane="-30786_0" departPos="29.11" departSpeed="0.00" departDelay="0.00" arrival="29014.00" arrivalLane="--30528#21_1" arrivalPos="437.86" arrivalSpeed="0.10" duration="211.00" routeLength="1540.78" waitingTime="60.00" waitingCount="2" stopTime="0.00" timeLoss="96.29" rerouteNo="0" devices="tripinfo_h43818c1:1 routing_h43818c1:1" vType="passenger5" speedFactor="0.97" vaporized=""/>
    <tripinfo id="h11990c1:1" depart="28829.00" departLane="--31146#0_0" departPos="12.91" departSpeed="0.00" departDelay="0.00" arrival="29016.00" arrivalLane="-31096#2_0" arrivalPos="20.43" arrivalSpeed="0.11" duration="187.00" routeLength="1690.22" waitingTime="46.00" waitingCount="2" stopTime="0.00" timeLoss="79.09" rerouteNo="0" devices="tripinfo_h11990c1:1 routing_h11990c1:1" vType="passenger2a" speedFactor="1.13" vaporized=""/>
    <tripinfo id="h32903c1:1" depart="29020.00" departLane="--32742#0_0" departPos="1883.71" departSpeed="0.00" departDelay="0.00" arrival="29021.00" arrivalLane="--32742#0_0" arrivalPos="544.49" arrivalSpeed="0.00" duration="1.00" routeLength="-1339.22" waitingTime="1.00" waitingCount="1" stopTime="0.00" timeLoss="1.00" rerouteNo="0" devices="tripinfo_h32903c1:1 routing_h32903c1:1" vType="passenger3" speedFactor="1.03" vaporized=""/>
    <tripinfo id="carIn2291:1" depart="28851.00" departLane="-30706#0_0" departPos="125.87" departSpeed="0.00" departDelay="11.00" arrival="29025.00" arrivalLane="-31680#2_0" arrivalPos="22.06" arrivalSpeed="0.09" duration="174.00" routeLength="3487.59" waitingTime="1.00" waitingCount="1" stopTime="0.00" timeLoss="21.10" rerouteNo="0" devices="tripinfo_carIn2291:1 routing_carIn2291:1" vType="passenger2b" speedFactor="0.98" vaporized=""/>
    <tripinfo id="carIn47129:1" depart="28811.00" departLane="--30314#1_0" departPos="183.97" departSpeed="0.00" departDelay="0.00" arrival="29028.00" arrivalLane="-32234#0_0" arrivalPos="74.00" arrivalSpeed="0.08" duration="217.00" routeLength="1684.74" waitingTime="87.00" waitingCount="4" stopTime="0.00" timeLoss="118.57" rerouteNo="0" devices="tripinfo_carIn47129:1 routing_carIn47129:1" vType="passenger1" speedFactor="1.07" vaporized=""/>
    <tripinfo id="carIn39153:1" depart="28864.00" departLane="-30706#0_0" departPos="137.17" departSpeed="0.00" departDelay="14.00" arrival="29034.00" arrivalLane="-32400#5_2" arrivalPos="23.99" arrivalSpeed="4.20" duration="170.00" routeLength="4904.24" waitingTime="0.00" waitingCount="0" stopTime="0.00" timeLoss="20.52" rerouteNo="0" devices="tripinfo_carIn39153:1 routing_carIn39153:1" vType="passenger3" speedFactor="1.00" vaporized=""/>
    <tripinfo id="h26666c1:1" depart="28880.00" departLane="--32234#0_0" departPos="7.02" departSpeed="0.00" departDelay="0.00" arrival="29034.00" arrivalLane="-31466#2_0" arrivalPos="1107.42" arrivalSpeed="3.14" duration="154.00" routeLength="2288.91" waitingTime="0.00" waitingCount="0" stopTime="0.00" timeLoss="19.59" rerouteNo="0" devices="tripinfo_h26666c1:1 routing_h26666c1:1" vType="passenger2b" speedFactor="1.09" vaporized=""/>
    <tripinfo id="carIn45813:1" depart="28822.00" departLane="-32742#0_0" departPos="1487.06" departSpeed="0.00" departDelay="0.00" arrival="29035.00" arrivalLane="-30892#26_0" arrivalPos="57.98" arrivalSpeed="0.16" duration="213.00" routeLength="2515.86" waitingTime="38.00" waitingCount="1" stopTime="0.00" timeLoss="66.35" rerouteNo="0" devices="tripinfo_carIn45813:1 routing_carIn45813:1" vType="passenger2a" speedFactor="1.10" vaporized=""/>
    <tripinfo id="h24587c1:1" depart="28881.00" departLane="--32088_0" departPos="27.47" departSpeed="0.00" departDelay="0.00" arrival="29042.00" arrivalLane="-32400#5_2" arrivalPos="32.96" arrivalSpeed="0.10" duration="161.00" routeLength="2954.83" waitingTime="0.00" waitingCount="0" stopTime="0.00" timeLoss="32.54" rerouteNo="0" devices="tripinfo_h24587c1:1" vType="passenger1" speedFactor="1.11" vaporized=""/>
    <tripinfo id="h55426c1:1" depart="28894.00" departLane="-31602#3_0" departPos="13.14" departSpeed="0.00" departDelay="0.00" arrival="29045.00" arrivalLane="--31966#10_0" arrivalPos="50.41" arrivalSpeed="0.40" duration="151.00" routeLength="1642.25" waitingTime="7.00" waitingCount="1" stopTime="0.00" timeLoss="28.23" rerouteNo="1" devices="tripinfo_h55426c1:1 routing_h55426c1:1" vType="passenger2b" speedFactor="0.87" vaporized=""/>
    <tripinfo id="h15673c1:1" depart="28886.00" departLane="--31466#0_0" departPos="133.58" departSpeed="0.00" departDelay="0.00" arrival="29046.00" arrivalLane="--30592#4_0" arrivalPos="49.99" arrivalSpeed="0.33" duration="160.00" routeLength="1548.03" waitingTime="28.00" waitingCount="1" stopTime="0.00" timeLoss="50.88" rerouteNo="0" devices="tripinfo_h15673c1:1 routing_h15673c1:1" vType="passenger5" speedFactor="0.93" vaporized=""/>
    <tripinfo id="carIn17655:1" depart="28835.00" departLane="-30706#0_0" departPos="154.88" departSpeed="0.00" departDelay="8.00" arrival="29047.00" arrivalLane="-31462#3_1" arrivalPos="188.93" arrivalSpeed="0.11" duration="212.00" routeLength="3980.78" waitingTime="0.00" waitingCount="0" stopTime="0.00" timeLoss="30.13" rerouteNo="0" devices="tripinfo_carIn17655:1" vType="passenger1" speedFactor="1.07" vaporized=""/>
    <tripinfo id="h9674c1:1" depart="28855.00" departLane="--30958_0" departPos="118.71" departSpeed="0.00" departDelay="0.00" arrival="29049.00" arrivalLane="--31782_0" arrivalPos="100.22" arrivalSpeed="0.14" duration="194.00" routeLength="1559.21" waitingTime="52.00" waitingCount="1" stopTime="0.00" timeLoss="73.35" rerouteNo="1" devices="tripinfo_h9674c1:1 routing_h9674c1:1" vType="passenger2a" speedFactor="0.93" vaporized=""/>
    <tripinfo id="carIn17827:1" depart="28959.00" departLane="--31448_0" departPos="751.96" departSpeed="0.00" departDelay="0.00" arrival="29050.00" arrivalLane="-32552#6_0" arrivalPos="519.16" arrivalSpeed="0.42" duration="91.00" routeLength="759.62" waitingTime="27.00" waitingCount="1" stopTime="0.00" timeLoss="41.69" rerouteNo="0" devices="tripinfo_carIn17827:1 routing_carIn17827:1" vType="passenger2b" speedFactor="1.06" vaporized=""/>
    <tripinfo id="h4552c1:1" depart="28818.00" departLane="--30586#0_0" departPos="9.52" departSpeed="0.00" departDelay="0.00" arrival="29053.00" arrivalLane="-31906#6_0" arrivalPos="33.40" arrivalSpeed="0.28" duration="235.00" routeLength="2767.23" waitingTime="0.00" waitingCount="0" stopTime="0.00" timeLoss="21.14" rerouteNo="1" devices="tripinfo_h4552c1:1 routing_h4552c1:1" vType="passenger5" speedFactor="0.90" vaporized=""/>
    <tripinfo id="carIn11529:1" depart="28812.00" departLane="-31622#0_0" departPos="91.79" departSpeed="0.00" departDelay="1.00" arrival="29059.00" arrivalLane="--30810#0_0" arrivalPos="145.92" arrivalSpeed="0.07" duration="247.00" routeLength="3310.14" waitingTime="1.00" waitingCount="1" stopTime="0.00" timeLoss="27.62" rerouteNo="1" devices="tripinfo_carIn11529:1 routing_carIn11529:1" vType="passenger1" speedFactor="1.00" vaporized=""/>
    <tripinfo id="h39115c2:1" depart="28855.00" departLane="-30474#1_0" departPos="44.41" departSpeed="0.00" departDelay="0.00" arrival="29061.00" arrivalLane="--31492#0_0" arrivalPos="146.49" arrivalSpeed="0.23" duration="206.00" routeLength="1910.05" waitingTime="44.00" waitingCount="2" stopTime="0.00" timeLoss="71.27" rerouteNo="0" devices="tripinfo_h39115c2:1 routing_h39115c2:1" vType="passenger2b" speedFactor="1.02" vaporized=""/>
    <tripinfo id="h1255c1:1" depart="28917.00" departLane="--32560_0" departPos="46.18" departSpeed="0.00" departDelay="0.00" arrival="29068.00" arrivalLane="--31078#1_0" arrivalPos="75.37" arrivalSpeed="0.26" duration="151.00" routeLength="2182.52" waitingTime="11.00" waitingCount="1" stopTime="0.00" timeLoss="36.23" rerouteNo="0" devices="tripinfo_h1255c1:1 routing_h1255c1:1" vType="passenger3" speedFactor="1.18" vaporized=""/>
    <tripinfo id="carIn5883:1" depart="28826.00" departLane="-32426#0_0" departPos="117.59" departSpeed="0.00" departDelay="3.00" arrival="29069.00" arrivalLane="-31966#2_0" arrivalPos="13.16" arrivalSpeed="0.13" duration="243.00" routeLength="3125.33" waitingTime="23.00" waitingCount="2" stopTime="0.00" timeLoss="56.84" rerouteNo="1" devices="tripinfo_carIn5883:1 routing_carIn5883:1" vType="passenger1" speedFactor="1.03" vaporized=""/>
    <tripinfo id="carIn17471:1" depart="28997.00" departLane="-32766_0" departPos="158.70" departSpeed="0.00" departDelay="0.00" arrival="29069.00" arrivalLane="-32766_0" arrivalPos="1316.66" arrivalSpeed="0.13" duration="72.00" routeLength="1157.97" waitingTime="0.00" waitingCount="0" stopTime="0.00" timeLoss="10.11" rerouteNo="0" devices="tripinfo_carIn17471:1 routing_carIn17471:1" vType="passenger1" speedFactor="0.96" vaporized=""/>
    <tripinfo id="carIn20468:1" depart="28831.00" departLane="-30984_0" departPos="1088.26" departSpeed="0.00" departDelay="0.00" arrival="29072.00" arrivalLane="-30528#47_0" arrivalPos="58.03" arrivalSpeed="0.16" duration="241.00" routeLength="2633.14" waitingTime="44.00" waitingCount="3" stopTime="0.00" timeLoss="77.92" rerouteNo="0" devices="tripinfo_carIn20468:1 routing_carIn20468:1" vType="passenger3" speedFactor="1.01" vaporized=""/>
    <tripinfo id="h33649c1:1" depart="29065.00" departLane="--32790_0" departPos="5.01" departSpeed="0.00" departDelay="0.00" arrival="29073.00" arrivalLane="--32790_0" arrivalPos="44.13" arrivalSpeed="0.24" duration="8.00" routeLength="39.13" waitingTime="0.00" waitingCount="0" stopTime="0.00" timeLoss="5.28" rerouteNo="0" devices="tripinfo_h33649c1:1 routing_h33649c1:1" vType="passenger1" speedFactor="1.03" vaporized=""/>
    <tripinfo id="h73333c1:1" depart="28846.00" departLane="-32876_0" departPos="3.01" departSpeed="0.00" departDelay="0.00" arrival="29081.00" arrivalLane="-31800_0" arrivalPos="802.97" arrivalSpeed="0.30" duration="235.00" routeLength="2499.11" waitingTime="17.00" waitingCount="2" stopTime="0.00" timeLoss="46.34" rerouteNo="0" devices="tripinfo_h73333c1:1 routing_h73333c1:1" vType="passenger1" speedFactor="0.90" vaporized=""/>
    <tripinfo id="carIn23473:1" depart="28858.00" departLane="-32792#0_0" departPos="1089.93" departSpeed="0.00" departDelay="0.00" arrival="29083.00" arrivalLane="-31884#0_1" arrivalPos="31.62" arrivalSpeed="0.12" duration="225.00" routeLength="2130.79" waitingTime="23.00" waitingCount="3" stopTime="0.00" timeLoss="57.26" rerouteNo="1" devices="tripinfo_carIn23473:1 routing_carIn23473:1" vType="passenger1" speedFactor="0.85" vaporized=""/>
    <tripinfo id="8FRtoLU.0" depart="28807.00" departLane="-32426#0_0" departPos="4.60" departSpeed="13.89" departDelay="4.00" arrival="29083.00" arrivalLane="-32400#5_0" arrivalPos="257.03" arrivalSpeed="33.41" duration="276.00" routeLength="6508.44" waitingTime="0.00" waitingCount="0" stopTime="0.00" timeLoss="21.32" rerouteNo="0" devices="tripinfo_8FRtoLU.0 routing_8FRtoLU.0" vType="passenger2b" speedFactor="0.95" vaporized=""/>
    <tripinfo id="carIn36325:1" depart="28915.00" departLane="-31622#0_0" departPos="130.61" departSpeed="0.00" departDelay="1.00" arrival="29084.00" arrivalLane="-32432#0_0" arrivalPos="201.08" arrivalSpeed="0.72" duration="169.00" routeLength="3231.48" waitingTime="13.00" waitingCount="1" stopTime="0.00" timeLoss="40.37" rerouteNo="0" devices="tripinfo_carIn36325:1" vType="passenger3" speedFactor="0.98" vaporized=""/>
    <tripinfo id="carIn11823:1" depart="28869.00" departLane="--32442_0" departPos="1051.16" departSpeed="0.00" departDelay="0.00" arrival="29089.00" arrivalLane="--32912#1_0" arrivalPos="33.05" arrivalSpeed="0.74" duration="220.00" routeLength="3066.50" waitingTime="10.00" waitingCount="1" stopTime="0.00" timeLoss="31.88" rerouteNo="1" devices="tripinfo_carIn11823:1 routing_carIn11823:1" vType="passenger1" speedFactor="1.02" vaporized=""/>
    <tripinfo id="h50252c2:1" depart="28829.00" departLane="-31228_0" departPos="72.48" departSpeed="0.00" departDelay="0.00" arrival="29090.00" arrivalLane="-31714#1_0" arrivalPos="193.92" arrivalSpeed="0.14" duration="261.00" routeLength="2730.07" waitingTime="30.00" waitingCount="1" stopTime="0.00" timeLoss="54.36" rerouteNo="1" devices="tripinfo_h50252c2:1 routing_h50252c2:1" vType="passenger1" speedFactor="0.95" vaporized=""/>
    <tripinfo id="8FRtoBE.0" depart="28810.00" departLane="-32426#0_0" departPos="4.60" departSpeed="13.89" departDelay="1.00" arrival="29090.00" arrivalLane="-31622#16_1" arrivalPos="305.81" arrivalSpeed="40.98" duration="280.00" routeLength="9592.32" waitingTime="0.00" waitingCount="0" stopTime="0.00" timeLoss="17.82" rerouteNo="0" devices="tripinfo_8FRtoBE.0 routing_8FRtoBE.0" vType="passenger2a" speedFactor="1.14" vaporized=""/>
    <tripinfo id="h39715c1:1" depart="29090.00" departLane="-30516#2_0" departPos="140.43" departSpeed="0.00" departDelay="0.00" arrival="29091.00" arrivalLane="-30516#2_0" arrivalPos="90.82" arrivalSpeed="0.00" duration="1.00" routeLength="-49.61" waitingTime="1.00" waitingCount="1" stopTime="0.00" timeLoss="1.00" rerouteNo="0" devices="tripinfo_h39715c1:1 routing_h39715c1:1" vType="passenger2a" speedFactor="0.93" vaporized=""/>
    <tripinfo id="carIn24005:1" depart="28820.00" departLane="-32426#0_0" departPos="12.49" departSpeed="0.00" departDelay="0.00" arrival="29092.00" arrivalLane="-31992#0_0" arrivalPos="18.15" arrivalSpeed="0.09" duration="272.00" routeLength="6687.89" waitingTime="4.00" waitingCount="2" stopTime="0.00" timeLoss="35.48" rerouteNo="1" devices="tripinfo_carIn24005:1 routing_carIn24005:1" vType="passenger1" speedFactor="1.08" vaporized=""/>
    <tripinfo id="carIn3662:1" depart="28971.00" departLane="--30542#1_0" departPos="24.34" departSpeed="0.00" departDelay="73.00" arrival="29092.00" arrivalLane="--32786#0_0" arrivalPos="93.02" arrivalSpeed="0.09" duration="121.00" routeLength="737.61" waitingTime="41.00" waitingCount="2" stopTime="0.00" timeLoss="67.65" rerouteNo="0" devices="tripinfo_carIn3662:1" vType="passenger4" speedFactor="1.00" vaporized=""/>
    <tripinfo id="carIn43144:1" depart="28806.00" departLane="--30542#1_0" departPos="14.80" departSpeed="0.00" departDelay="0.00" arrival="29096.00" arrivalLane="-32382#0_1" arrivalPos="42.79" arrivalSpeed="1.78" duration="290.00" routeLength="2428.34" waitingTime="98.00" waitingCount="5" stopTime="0.00" timeLoss="141.75" rerouteNo="0" devices="tripinfo_carIn43144:1" vType="passenger3" speedFactor="1.07" vaporized=""/>