<?xml version="1.0" encoding="UTF-8"?>

<!-- generated on 01/17/21 13:28:48 by Eclipse SUMO GUI Version 1.7.0
<configuration xmlns:xsi="http://www.w3.org/2001/XMLSchema-instance" xsi:noNamespaceSchemaLocation="http://sumo.dlr.de/xsd/sumoConfiguration.xsd">

    <input>
        <net-file value="C:\Users\Duc\source\veins-5.0\veins-veins-5.0\examples\EdgeComputing_LuST\lust.net.xml"/>
        <route-files value="C:\Users\Duc\source\veins-5.0\veins-veins-5.0\examples\EdgeComputing_LuST\buslines.rou.xml,C:\Users\Duc\source\veins-5.0\veins-veins-5.0\examples\EdgeComputing_LuST\DUERoutes/local.static.0.rou.xml,C:\Users\Duc\source\veins-5.0\veins-veins-5.0\examples\EdgeComputing_LuST\DUERoutes/local.static.1.rou.xml,C:\Users\Duc\source\veins-5.0\veins-veins-5.0\examples\EdgeComputing_LuST\DUERoutes/local.static.2.rou.xml,C:\Users\Duc\source\veins-5.0\veins-veins-5.0\examples\EdgeComputing_LuST\transit.rou.xml"/>
        <additional-files value="C:\Users\Duc\source\veins-5.0\veins-veins-5.0\examples\EdgeComputing_LuST\vtypes.add.xml,C:\Users\Duc\source\veins-5.0\veins-veins-5.0\examples\EdgeComputing_LuST\busstops.add.xml,C:\Users\Duc\source\veins-5.0\veins-veins-5.0\examples\EdgeComputing_LuST\e1detectors.add.xml,C:\Users\Duc\source\veins-5.0\veins-veins-5.0\examples\EdgeComputing_LuST\lust.poly.xml,C:\Users\Duc\source\veins-5.0\veins-veins-5.0\examples\EdgeComputing_LuST\tll.static.xml"/>
    </input>

    <output>
        <summary-output value="C:\Users\Duc\source\veins-5.0\veins-veins-5.0\examples\EdgeComputing_LuST\due.static.summary.xml"/>
        <tripinfo-output value="C:\Users\Duc\source\veins-5.0\veins-veins-5.0\examples\EdgeComputing_LuST\due.static.tripinfo.xml"/>
    </output>

    <time>
        <begin value="0"/>
        <step-length value="1"/>
    </time>

    <processing>
        <ignore-junction-blocker value="20"/>
        <time-to-teleport value="600"/>
        <max-depart-delay value="600"/>
    </processing>

    <routing>
        <routing-algorithm value="dijkstra"/>
    </routing>

    <report>
        <verbose value="true"/>
        <log value="C:\Users\Duc\source\veins-5.0\veins-veins-5.0\examples\EdgeComputing_LuST\due.static.log"/>
    </report>

    <gui_only>
        <tracker-interval value="1"/>
    </gui_only>

</configuration>
-->

<tripinfos xmlns:xsi="http://www.w3.org/2001/XMLSchema-instance" xsi:noNamespaceSchemaLocation="http://sumo.dlr.de/xsd/tripinfo_file.xsd">
    <tripinfo id="randUni834:1" depart="5.00" departLane="--32406#3_0" departPos="44.28" departSpeed="0.00" departDelay="0.00" arrival="43.00" arrivalLane="--31212_0" arrivalPos="134.87" arrivalSpeed="0.19" duration="38.00" routeLength="419.00" waitingTime="0.00" waitingCount="0" stopTime="0.00" timeLoss="8.15" rerouteNo="0" devices="tripinfo_randUni834:1" vType="passenger2b" speedFactor="1.01" vaporized=""/>
    <tripinfo id="randUni16882:1" depart="14.00" departLane="-32340#7_0" departPos="8.34" departSpeed="0.00" departDelay="0.00" arrival="120.00" arrivalLane="-32660_0" arrivalPos="41.64" arrivalSpeed="0.24" duration="106.00" routeLength="1285.61" waitingTime="0.00" waitingCount="0" stopTime="0.00" timeLoss="14.38" rerouteNo="0" devices="tripinfo_randUni16882:1" vType="passenger1" speedFactor="1.01" vaporized=""/>
    <tripinfo id="randUni11317:1" depart="11.00" departLane="--31490_0" departPos="79.31" departSpeed="0.00" departDelay="0.00" arrival="135.00" arrivalLane="-31290#1_0" arrivalPos="2.17" arrivalSpeed="1.14" duration="124.00" routeLength="1697.02" waitingTime="0.00" waitingCount="0" stopTime="0.00" timeLoss="20.77" rerouteNo="0" devices="tripinfo_randUni11317:1" vType="passenger2a" speedFactor="1.16" vaporized=""/>
    <tripinfo id="NBSKMS_Nightbus_0" depart="39.00" departLane="-32278#1_0" departPos="0.00" departSpeed="0.00" departDelay="0.00" arrival="274.00" arrivalLane="-32278#5_0" arrivalPos="841.44" arrivalSpeed="13.56" duration="235.00" routeLength="1905.19" waitingTime="11.00" waitingCount="2" stopTime="60.00" timeLoss="43.75" rerouteNo="0" devices="tripinfo_NBSKMS_Nightbus_0" vType="bus" speedFactor="1.05" vaporized=""/>
    <tripinfo id="0FRtoLU.0" depart="42.00" departLane="-32426#0_0" departPos="5.10" departSpeed="13.89" departDelay="0.00" arrival="287.00" arrivalLane="-32400#5_0" arrivalPos="257.03" arrivalSpeed="37.63" duration="245.00" routeLength="6507.94" waitingTime="0.00" waitingCount="0" stopTime="0.00" timeLoss="14.52" rerouteNo="0" devices="tripinfo_0FRtoLU.0" vType="passenger1" speedFactor="1.04" vaporized=""/>
    <tripinfo id="NBSKMS_Nightbus_1" depart="39.00" departLane="--32278#5_0" departPos="0.00" departSpeed="0.00" departDelay="0.00" arrival="309.00" arrivalLane="--32278#1_0" arrivalPos="139.07" arrivalSpeed="15.15" duration="270.00" routeLength="1910.02" waitingTime="48.00" waitingCount="3" stopTime="60.00" timeLoss="87.49" rerouteNo="0" devices="tripinfo_NBSKMS_Nightbus_1" vType="bus" speedFactor="1.12" vaporized=""/>
    <tripinfo id="randUni13606:1" depart="27.00" departLane="--32244_0" departPos="186.38" departSpeed="0.00" departDelay="0.00" arrival="337.00" arrivalLane="-31068#1_0" arrivalPos="189.33" arrivalSpeed="0.24" duration="310.00" routeLength="2732.85" waitingTime="59.00" waitingCount="3" stopTime="0.00" timeLoss="95.19" rerouteNo="0" devices="tripinfo_randUni13606:1" vType="passenger4" speedFactor="0.89" vaporized=""/>
    <tripinfo id="0FRtoLU.1" depart="63.00" departLane="-32426#0_0" departPos="5.10" departSpeed="13.89" departDelay="0.00" arrival="346.00" arrivalLane="-32400#5_0" arrivalPos="257.03" arrivalSpeed="31.70" duration="283.00" routeLength="6507.94" waitingTime="0.00" waitingCount="0" stopTime="0.00" timeLoss="16.08" rerouteNo="0" devices="tripinfo_0FRtoLU.1" vType="passenger1" speedFactor="0.90" vaporized=""/>
    <tripinfo id="0FRtoLU.2" depart="119.00" departLane="-32426#0_0" departPos="6.10" departSpeed="13.89" departDelay="0.00" arrival="347.00" arrivalLane="-32400#5_0" arrivalPos="257.03" arrivalSpeed="34.14" duration="228.00" routeLength="6506.94" waitingTime="0.00" waitingCount="0" stopTime="0.00" timeLoss="22.19" rerouteNo="0" devices="tripinfo_0FRtoLU.2" vType="passenger3" speedFactor="1.17" vaporized=""/>
    <tripinfo id="randUni3742:1" depart="283.00" departLane="--32124#1_0" departPos="23.79" departSpeed="0.00" departDelay="0.00" arrival="369.00" arrivalLane="--31894#2_0" arrivalPos="15.94" arrivalSpeed="0.13" duration="86.00" routeLength="468.09" waitingTime="36.00" waitingCount="1" stopTime="0.00" timeLoss="51.54" rerouteNo="0" devices="tripinfo_randUni3742:1" vType="passenger2a" speedFactor="0.94" vaporized=""/>
    <tripinfo id="0DEtoLU.0" depart="15.00" departLane="-31622#0_0" departPos="4.60" departSpeed="13.89" departDelay="0.00" arrival="370.00" arrivalLane="-32400#5_1" arrivalPos="257.03" arrivalSpeed="37.10" duration="355.00" routeLength="11354.22" waitingTime="0.00" waitingCount="0" stopTime="0.00" timeLoss="14.55" rerouteNo="0" devices="tripinfo_0DEtoLU.0" vType="passenger2a" speedFactor="1.04" vaporized=""/>
    <tripinfo id="0LUtoDE.0" depart="45.00" departLane="-30706#0_0" departPos="5.10" departSpeed="13.89" departDelay="0.00" arrival="380.00" arrivalLane="-30668#16_1" arrivalPos="272.49" arrivalSpeed="35.35" duration="335.00" routeLength="10511.80" waitingTime="0.00" waitingCount="0" stopTime="0.00" timeLoss="12.73" rerouteNo="0" devices="tripinfo_0LUtoDE.0" vType="passenger1" speedFactor="1.00" vaporized=""/>
    <tripinfo id="0DEtoLU.1" depart="43.00" departLane="-31622#0_0" departPos="6.10" departSpeed="13.89" departDelay="0.00" arrival="381.00" arrivalLane="-32400#5_1" arrivalPos="257.03" arrivalSpeed="38.71" duration="338.00" routeLength="11352.72" waitingTime="0.00" waitingCount="0" stopTime="0.00" timeLoss="13.64" rerouteNo="0" devices="tripinfo_0DEtoLU.1" vType="passenger3" speedFactor="1.09" vaporized=""/>
    <tripinfo id="0FRtoLU.3" depart="129.00" departLane="-32426#0_0" departPos="5.10" departSpeed="13.89" departDelay="0.00" arrival="384.00" arrivalLane="-32400#5_0" arrivalPos="257.03" arrivalSpeed="35.06" duration="255.00" routeLength="6507.94" waitingTime="0.00" waitingCount="0" stopTime="0.00" timeLoss="15.40" rerouteNo="0" devices="tripinfo_0FRtoLU.3" vType="passenger1" speedFactor="1.00" vaporized=""/>
    <tripinfo id="0BEtoFR.1" depart="145.00" departLane="-30668#0_0" departPos="4.60" departSpeed="13.89" departDelay="0.00" arrival="400.00" arrivalLane="-31366#3_1" arrivalPos="20.69" arrivalSpeed="40.41" duration="255.00" routeLength="9435.52" waitingTime="0.00" waitingCount="0" stopTime="0.00" timeLoss="11.30" rerouteNo="0" devices="tripinfo_0BEtoFR.1" vType="passenger2a" speedFactor="1.14" vaporized=""/>
    <tripinfo id="randUni18368:1" depart="0.00" departLane="-31606#0_0" departPos="177.47" departSpeed="0.00" departDelay="0.00" arrival="402.00" arrivalLane="-30496#4_1" arrivalPos="97.49" arrivalSpeed="0.73" duration="402.00" routeLength="3168.72" waitingTime="125.00" waitingCount="4" stopTime="0.00" timeLoss="163.11" rerouteNo="0" devices="tripinfo_randUni18368:1" vType="passenger2a" speedFactor="0.94" vaporized=""/>
    <tripinfo id="randUni19500:1" depart="198.00" departLane="-31230#5_0" departPos="110.20" departSpeed="0.00" departDelay="0.00" arrival="413.00" arrivalLane="--30968#1_0" arrivalPos="87.47" arrivalSpeed="0.17" duration="215.00" routeLength="2376.37" waitingTime="21.00" waitingCount="2" stopTime="0.00" timeLoss="60.13" rerouteNo="0" devices="tripinfo_randUni19500:1" vType="passenger2b" speedFactor="1.10" vaporized=""/>
    <tripinfo id="randUni10908:1" depart="127.00" departLane="-31302_0" departPos="12.14" departSpeed="0.00" departDelay="0.00" arrival="417.00" arrivalLane="--32160#3_0" arrivalPos="34.56" arrivalSpeed="0.09" duration="290.00" routeLength="3138.89" waitingTime="49.00" waitingCount="4" stopTime="0.00" timeLoss="97.15" rerouteNo="0" devices="tripinfo_randUni10908:1" vType="passenger2b" speedFactor="1.17" vaporized=""/>
    <tripinfo id="0LUtoBE.0" depart="12.00" departLane="-30706#0_0" departPos="4.60" departSpeed="13.89" departDelay="0.00" arrival="418.00" arrivalLane="-31622#16_1" arrivalPos="305.81" arrivalSpeed="33.15" duration="406.00" routeLength="11318.23" waitingTime="0.00" waitingCount="0" stopTime="0.00" timeLoss="19.71" rerouteNo="0" devices="tripinfo_0LUtoBE.0" vType="passenger2a" speedFactor="0.96" vaporized=""/>
    <tripinfo id="0LUtoDE.1" depart="122.00" departLane="-30706#0_0" departPos="4.60" departSpeed="13.89" departDelay="0.00" arrival="427.00" arrivalLane="-30668#16_1" arrivalPos="272.49" arrivalSpeed="38.31" duration="305.00" routeLength="10512.30" waitingTime="0.00" waitingCount="0" stopTime="0.00" timeLoss="11.82" rerouteNo="0" devices="tripinfo_0LUtoDE.1" vType="passenger2b" speedFactor="1.10" vaporized=""/>
    <tripinfo id="randUni8397:1" depart="348.00" departLane="--30528#29_0" departPos="19.43" departSpeed="0.00" departDelay="0.00" arrival="434.00" arrivalLane="--30778#0_0" arrivalPos="16.16" arrivalSpeed="0.13" duration="86.00" routeLength="922.79" waitingTime="0.00" waitingCount="0" stopTime="0.00" timeLoss="20.05" rerouteNo="0" devices="tripinfo_randUni8397:1" vType="passenger1" speedFactor="1.01" vaporized=""/>
    <tripinfo id="0BEtoFR.0" depart="96.00" departLane="-30668#0_0" departPos="7.10" departSpeed="13.89" departDelay="0.00" arrival="440.00" arrivalLane="-31366#3_1" arrivalPos="20.69" arrivalSpeed="29.54" duration="344.00" routeLength="9433.02" waitingTime="0.00" waitingCount="0" stopTime="0.00" timeLoss="11.09" rerouteNo="0" devices="tripinfo_0BEtoFR.0" vType="passenger5" speedFactor="0.88" vaporized=""/>
    <tripinfo id="0FRtoLU.4" depart="192.00" departLane="-32426#0_0" departPos="4.60" departSpeed="13.89" departDelay="0.00" arrival="452.00" arrivalLane="-32400#5_0" arrivalPos="257.03" arrivalSpeed="34.84" duration="260.00" routeLength="6508.44" waitingTime="0.00" waitingCount="0" stopTime="0.00" timeLoss="16.03" rerouteNo="0" devices="tripinfo_0FRtoLU.4" vType="passenger2a" speedFactor="0.99" vaporized=""/>
    <tripinfo id="0DEtoFR.2" depart="14.00" departLane="-31622#0_0" departPos="5.10" departSpeed="13.89" departDelay="0.00" arrival="458.00" arrivalLane="-31366#3_1" arrivalPos="20.69" arrivalSpeed="38.98" duration="444.00" routeLength="15900.65" waitingTime="0.00" waitingCount="0" stopTime="0.00" timeLoss="14.42" rerouteNo="0" devices="tripinfo_0DEtoFR.2" vType="passenger1" speedFactor="1.09" vaporized=""/>
    <tripinfo id="0FRtoBE.0" depart="96.00" departLane="-32426#0_0" departPos="4.60" departSpeed="13.89" departDelay="0.00" arrival="466.00" arrivalLane="-31622#16_1" arrivalPos="305.81" arrivalSpeed="29.80" duration="370.00" routeLength="9592.32" waitingTime="0.00" waitingCount="0" stopTime="0.00" timeLoss="17.74" rerouteNo="0" devices="tripinfo_0FRtoBE.0" vType="passenger2b" speedFactor="0.85" vaporized=""/>
    <tripinfo id="0DEtoFR.1" depart="8.00" departLane="-31622#0_0" departPos="4.60" departSpeed="13.89" departDelay="0.00" arrival="472.00" arrivalLane="-31366#3_1" arrivalPos="20.69" arrivalSpeed="36.82" duration="464.00" routeLength="15901.15" waitingTime="0.00" waitingCount="0" stopTime="0.00" timeLoss="16.13" rerouteNo="0" devices="tripinfo_0DEtoFR.1" vType="passenger2b" speedFactor="1.05" vaporized=""/>
    <tripinfo id="randUni2416:1" depart="301.00" departLane="--32280#0_0" departPos="59.68" departSpeed="0.00" departDelay="0.00" arrival="480.00" arrivalLane="-31904#2_0" arrivalPos="20.06" arrivalSpeed="0.08" duration="179.00" routeLength="2093.78" waitingTime="3.00" waitingCount="2" stopTime="0.00" timeLoss="28.78" rerouteNo="0" devices="tripinfo_randUni2416:1" vType="passenger5" speedFactor="0.98" vaporized=""/>
    <tripinfo id="0LUtoDE.2" depart="205.00" departLane="-30706#0_0" departPos="4.60" departSpeed="13.89" departDelay="0.00" arrival="498.00" arrivalLane="-30668#16_1" arrivalPos="272.49" arrivalSpeed="40.09" duration="293.00" routeLength="10512.30" waitingTime="0.00" waitingCount="0" stopTime="0.00" timeLoss="12.82" rerouteNo="0" devices="tripinfo_0LUtoDE.2" vType="passenger2b" speedFactor="1.15" vaporized=""/>
    <tripinfo id="0FRtoBE.1" depart="190.00" departLane="-32426#0_0" departPos="4.60" departSpeed="13.89" departDelay="0.00" arrival="501.00" arrivalLane="-31622#16_1" arrivalPos="305.81" arrivalSpeed="35.89" duration="311.00" routeLength="9592.32" waitingTime="0.00" waitingCount="0" stopTime="0.00" timeLoss="16.32" rerouteNo="0" devices="tripinfo_0FRtoBE.1" vType="passenger2b" speedFactor="1.02" vaporized=""/>
    <tripinfo id="0BEtoFR.2" depart="215.00" departLane="-30668#0_0" departPos="4.60" departSpeed="13.89" departDelay="0.00" arrival="513.00" arrivalLane="-31366#3_1" arrivalPos="20.69" arrivalSpeed="34.19" duration="298.00" routeLength="9435.52" waitingTime="0.00" waitingCount="0" stopTime="0.00" timeLoss="12.52" rerouteNo="0" devices="tripinfo_0BEtoFR.2" vType="passenger2b" speedFactor="0.98" vaporized=""/>
    <tripinfo id="0LUtoBE.1" depart="133.00" departLane="-30706#0_0" departPos="5.10" departSpeed="13.89" departDelay="0.00" arrival="522.00" arrivalLane="-31622#16_1" arrivalPos="305.81" arrivalSpeed="35.11" duration="389.00" routeLength="11317.73" waitingTime="0.00" waitingCount="0" stopTime="0.00" timeLoss="17.50" rerouteNo="0" devices="tripinfo_0LUtoBE.1" vType="passenger1" speedFactor="1.00" vaporized=""/>
    <tripinfo id="0BEtoFR.3" depart="239.00" departLane="-30668#0_0" departPos="4.60" departSpeed="13.89" departDelay="0.00" arrival="525.00" arrivalLane="-31366#3_1" arrivalPos="20.69" arrivalSpeed="35.90" duration="286.00" routeLength="9435.52" waitingTime="0.00" waitingCount="0" stopTime="0.00" timeLoss="11.89" rerouteNo="0" devices="tripinfo_0BEtoFR.3" vType="passenger2a" speedFactor="1.02" vaporized=""/>
    <tripinfo id="0FRtoLU.5" depart="243.00" departLane="-32426#0_0" departPos="5.10" departSpeed="13.89" departDelay="0.00" arrival="529.00" arrivalLane="-32400#5_0" arrivalPos="257.03" arrivalSpeed="31.83" duration="286.00" routeLength="6507.94" waitingTime="0.00" waitingCount="0" stopTime="0.00" timeLoss="15.89" rerouteNo="0" devices="tripinfo_0FRtoLU.5" vType="passenger1" speedFactor="0.89" vaporized=""/>
    <tripinfo id="0DEtoLU.2" depart="160.00" departLane="-31622#0_0" departPos="5.10" departSpeed="13.89" departDelay="0.00" arrival="542.00" arrivalLane="-32400#5_1" arrivalPos="257.03" arrivalSpeed="34.12" duration="382.00" routeLength="11353.72" waitingTime="0.00" waitingCount="0" stopTime="0.00" timeLoss="17.54" rerouteNo="0" devices="tripinfo_0DEtoLU.2" vType="passenger1" speedFactor="0.97" vaporized=""/>
    <tripinfo id="0FRtoLU.6" depart="272.00" departLane="-32426#0_0" departPos="4.60" departSpeed="13.89" departDelay="0.00" arrival="553.00" arrivalLane="-32400#5_0" arrivalPos="257.03" arrivalSpeed="31.45" duration="281.00" routeLength="6508.44" waitingTime="0.00" waitingCount="0" stopTime="0.00" timeLoss="15.26" rerouteNo="0" devices="tripinfo_0FRtoLU.6" vType="passenger2b" speedFactor="0.91" vaporized=""/>
    <tripinfo id="randUni1024:1" depart="139.00" departLane="-32924#6_0" departPos="65.73" departSpeed="0.00" departDelay="0.00" arrival="562.00" arrivalLane="-32392#1_0" arrivalPos="3.73" arrivalSpeed="0.13" duration="423.00" routeLength="4016.30" waitingTime="85.00" waitingCount="4" stopTime="0.00" timeLoss="136.69" rerouteNo="0" devices="tripinfo_randUni1024:1" vType="passenger2b" speedFactor="0.99" vaporized=""/>
    <tripinfo id="randUni9228:1" depart="392.00" departLane="-31648#0_0" departPos="9.15" departSpeed="0.00" departDelay="0.00" arrival="567.00" arrivalLane="-30608#9_0" arrivalPos="2.09" arrivalSpeed="0.07" duration="175.00" routeLength="1895.02" waitingTime="15.00" waitingCount="2" stopTime="0.00" timeLoss="41.84" rerouteNo="0" devices="tripinfo_randUni9228:1" vType="passenger1" speedFactor="1.00" vaporized=""/>
    <tripinfo id="randUni5174:1" depart="289.00" departLane="--32388_0" departPos="20.35" departSpeed="0.00" departDelay="0.00" arrival="568.00" arrivalLane="-30398#8_0" arrivalPos="10.66" arrivalSpeed="0.14" duration="279.00" routeLength="2320.94" waitingTime="82.00" waitingCount="2" stopTime="0.00" timeLoss="124.39" rerouteNo="0" devices="tripinfo_randUni5174:1" vType="passenger2a" speedFactor="1.06" vaporized=""/>
    <tripinfo id="0LUtoFR.0" depart="235.00" departLane="-30706#0_0" departPos="5.10" departSpeed="13.89" departDelay="0.00" arrival="570.00" arrivalLane="-31366#3_1" arrivalPos="20.69" arrivalSpeed="37.22" duration="335.00" routeLength="8111.00" waitingTime="0.00" waitingCount="0" stopTime="0.00" timeLoss="38.80" rerouteNo="0" devices="tripinfo_0LUtoFR.0" vType="passenger1" speedFactor="1.04" vaporized=""/>
    <tripinfo id="0LUtoFR.1" depart="238.00" departLane="-30706#0_0" departPos="4.60" departSpeed="13.89" departDelay="0.00" arrival="573.00" arrivalLane="-31366#3_1" arrivalPos="20.69" arrivalSpeed="35.77" duration="335.00" routeLength="8111.50" waitingTime="0.00" waitingCount="0" stopTime="0.00" timeLoss="32.26" rerouteNo="0" devices="tripinfo_0LUtoFR.1" vType="passenger2a" speedFactor="1.02" vaporized=""/>
    <tripinfo id="0FRtoBE.2" depart="267.00" departLane="-32426#0_0" departPos="5.10" departSpeed="13.89" departDelay="0.00" arrival="579.00" arrivalLane="-31622#16_1" arrivalPos="305.81" arrivalSpeed="35.51" duration="312.00" routeLength="9591.82" waitingTime="0.00" waitingCount="0" stopTime="0.00" timeLoss="15.33" rerouteNo="0" devices="tripinfo_0FRtoBE.2" vType="passenger1" speedFactor="1.01" vaporized=""/>
    <tripinfo id="0DEtoFR.0" depart="0.00" departLane="-31622#0_0" departPos="5.10" departSpeed="13.89" departDelay="0.00" arrival="582.00" arrivalLane="-31366#3_1" arrivalPos="20.69" arrivalSpeed="29.32" duration="582.00" routeLength="15900.65" waitingTime="0.00" waitingCount="0" stopTime="0.00" timeLoss="18.32" rerouteNo="0" devices="tripinfo_0DEtoFR.0" vType="passenger1" speedFactor="0.83" vaporized=""/>
    <tripinfo id="0LUtoFR.2" depart="289.00" departLane="-30706#0_0" departPos="4.60" departSpeed="13.89" departDelay="0.00" arrival="585.00" arrivalLane="-31366#3_1" arrivalPos="20.69" arrivalSpeed="39.62" duration="296.00" routeLength="8111.50" waitingTime="0.00" waitingCount="0" stopTime="0.00" timeLoss="20.59" rerouteNo="0" devices="tripinfo_0LUtoFR.2" vType="passenger2a" speedFactor="1.12" vaporized=""/>
    <tripinfo id="0BEtoLU.0" depart="237.00" departLane="-30668#0_0" departPos="5.10" departSpeed="13.89" departDelay="0.00" arrival="589.00" arrivalLane="-32400#5_0" arrivalPos="257.03" arrivalSpeed="35.84" duration="352.00" routeLength="10745.68" waitingTime="0.00" waitingCount="0" stopTime="0.00" timeLoss="12.73" rerouteNo="0" devices="tripinfo_0BEtoLU.0" vType="passenger1" speedFactor="1.01" vaporized=""/>
</tripinfos>
