<?xml version="1.0" encoding="UTF-8"?>

<!-- generated on 01/20/21 11:59:04 by Eclipse SUMO GUI Version 1.7.0
<configuration xmlns:xsi="http://www.w3.org/2001/XMLSchema-instance" xsi:noNamespaceSchemaLocation="http://sumo.dlr.de/xsd/sumoConfiguration.xsd">

    <input>
        <net-file value="C:\Users\Duc\source\veins-5.0\veins-veins-5.0\examples\Aoki_sensei_assignment\lust.net.xml"/>
        <route-files value="C:\Users\Duc\source\veins-5.0\veins-veins-5.0\examples\Aoki_sensei_assignment\buslines.rou.xml,C:\Users\Duc\source\veins-5.0\veins-veins-5.0\examples\Aoki_sensei_assignment\local.0.rou.xml,C:\Users\Duc\source\veins-5.0\veins-veins-5.0\examples\Aoki_sensei_assignment\local.1.rou.xml,C:\Users\Duc\source\veins-5.0\veins-veins-5.0\examples\Aoki_sensei_assignment\local.2.rou.xml,C:\Users\Duc\source\veins-5.0\veins-veins-5.0\examples\Aoki_sensei_assignment\transit.rou.xml"/>
        <additional-files value="C:\Users\Duc\source\veins-5.0\veins-veins-5.0\examples\Aoki_sensei_assignment\vtypes.add.xml,C:\Users\Duc\source\veins-5.0\veins-veins-5.0\examples\Aoki_sensei_assignment\busstops.add.xml,C:\Users\Duc\source\veins-5.0\veins-veins-5.0\examples\Aoki_sensei_assignment\e1detectors.add.xml,C:\Users\Duc\source\veins-5.0\veins-veins-5.0\examples\Aoki_sensei_assignment\lust.poly.xml,C:\Users\Duc\source\veins-5.0\veins-veins-5.0\examples\Aoki_sensei_assignment\tll.static.xml"/>
    </input>

    <output>
        <summary-output value="C:\Users\Duc\source\veins-5.0\veins-veins-5.0\examples\Aoki_sensei_assignment\dua.static.summary.xml"/>
        <tripinfo-output value="C:\Users\Duc\source\veins-5.0\veins-veins-5.0\examples\Aoki_sensei_assignment\dua.static.tripinfo.xml"/>
    </output>

    <time>
        <begin value="32400"/>
        <step-length value="1"/>
    </time>

    <processing>
        <ignore-junction-blocker value="20"/>
        <time-to-teleport value="600"/>
        <max-depart-delay value="600"/>
    </processing>

    <routing>
        <routing-algorithm value="dijkstra"/>
        <device.rerouting.probability value="0.7"/>
        <device.rerouting.period value="300"/>
        <device.rerouting.pre-period value="300"/>
    </routing>

    <report>
        <verbose value="true"/>
        <log value="C:\Users\Duc\source\veins-5.0\veins-veins-5.0\examples\Aoki_sensei_assignment\dua.static.log"/>
    </report>

    <gui_only>
        <tracker-interval value="1"/>
    </gui_only>

</configuration>
-->

<tripinfos xmlns:xsi="http://www.w3.org/2001/XMLSchema-instance" xsi:noNamespaceSchemaLocation="http://sumo.dlr.de/xsd/tripinfo_file.xsd">
</tripinfos>
